 Gaussian 09, Revision B.01,
 Gaussian 09:  EM64L-G09RevB.01 12-Aug-2010

 --------------------------------------------------
 #UHF/6-31G(d) guess=mix stable scf=(tight,qc) test
 --------------------------------------------------

 --
 o3
 --
 Symbolic Z-matrix:
 Charge =  0 Multiplicity = 1

                         Standard orientation:
 ---------------------------------------------------------------------
 Center     Atomic      Atomic             Coordinates (Angstroms)
 Number     Number       Type             X           Y           Z
 ---------------------------------------------------------------------
      1          8           0        0.000000    0.577350    0.000000
      2          8           0        0.500000   -0.288675    0.000000
      3          8           0       -0.500000   -0.288675    0.000000
 ---------------------------------------------------------------------

 SCF Done:  E(UHF) =  -223.506276563     a.u. after   10 cycles

 The electronic state is 1-A1'.
 Alpha  occ. eigenvalues --  -20.72824 -20.72482 -20.72482  -2.46368  -1.35091
 Alpha  occ. eigenvalues --   -1.35091  -1.15204  -0.94103  -0.71714  -0.71714
 Alpha  occ. eigenvalues --   -0.44078  -0.44078
 Alpha virt. eigenvalues --    0.53064   0.56554   0.56554   0.90782   0.91299
 Alpha virt. eigenvalues --    0.95596   0.99393   0.99393   1.12802   1.12802
 Alpha virt. eigenvalues --    1.27106   1.29007   1.29007   1.59580   1.76267

  Beta  occ. eigenvalues --  -20.72824 -20.72482 -20.72482  -2.46368  -1.35091
  Beta  occ. eigenvalues --   -1.35091  -1.15204  -0.94103  -0.71714  -0.71714
  Beta  occ. eigenvalues --   -0.44078  -0.44078
  Beta virt. eigenvalues --    0.53064   0.56554   0.56554   0.90782   0.91299
  Beta virt. eigenvalues --    0.95596   0.99393   0.99393   1.12802   1.12802
  Beta virt. eigenvalues --    1.27106   1.29007   1.29007   1.59580   1.76267

 Mulliken atomic charges:
              1
     1  O    0.000000
     2  O    0.000000
     3  O    0.000000
 Sum of Mulliken atomic charges =   0.00000

 Dipole moment (field-independent basis, Debye):
    X=              0.0000    Y=              0.0000    Z=              0.0000  Tot=              0.0000
 Quadrupole moment (field-independent basis, Debye-Ang):
   XX=            -14.5276   YY=            -14.5276   ZZ=            -14.6040
   XY=              0.0000   XZ=              0.0000   YZ=              0.0000

 Normal termination of Gaussian 09 at Fri Aug 17 11:22:10 2018.
